Air Cars (World);Air Cars;atarijaguar;;1997;MidNite Entertainment Group Inc.;Action, Racing / Driving;4;;;;;;;Air Cars (World);AirCars takes place in the future after a nuclear holocaust. The large organization E.B.N.E.R.S. is plotting to take over the world and has developed advanced forcefield and teleportation systems, and nuclear powered AirCars. To stop the plot, your group steals plans, builds its own AirCar, and sets out to destroy all of the bases, 28 known and countless unknown ones, stationed around the globe....
Alien vs Predator (World);Alien vs Predator;atarijaguar;;1994;Rebellion Developments Ltd.;Action;1;;;;;;;Alien vs Predator (World);The Jaguar version of Alien Vs Predator is completely different from the arcade and SNES games of the same name. This version takes place entirely on a Colonial Marine Training base. A ship infested with aliens is found floating near the outer-space training facility. Of course, once the aliens get inside the base, they kill off nearly everyone....
Atari Karts (World);Atari Karts;atarijaguar;;1995;Miracle Designs;Racing / Driving;2;;;;;;;Atari Karts (World);Atari Karts is a character-based go-kart racing game. It plays very similarly to Super Mario Kart. The emphasis in this game, like most kart games, is on making use of pick-up items found around the track to knock out your opponents. There is only one game mode, a points based cup series. There are four difficulty levels, each with 3 cups to race for....
Attack of the Mutant Penguins (World);Attack of the Mutant Penguins;atarijaguar;;1996;Sunrise Games;Action, Strategy;1;;;;;;;Attack of the Mutant Penguins (World);In the distant galaxy of Bleurggh, an evil (but reasonably stupid) band of aliens picked up some of Earth's television signals. Unfortunately for them, they could only tune in a wildlife program. They figured the Earth would be a pushover to invade, so they disguised themselves as its inhabitants -- penguins! Word of the invasion has reached those champions of intergalactic do-goodery, Bernard and Rodney....
Battle Sphere Gold (World);Battle Sphere Gold;atarijaguar;;;4Play/ScatoLogic;Action, Simulation;;;;;;;;Battle Sphere Gold (World);A 3D space combat simulator, BattleSphere's story was based upon an episode in the original Star Trek television series and it plays similarly to Star Raiders. Seven alien races vie against each other - the victor will control the galaxy. They meet in an arena in Sector 51, a spherical sector of space formerly used by the Earth government to secretly test new weapons and starships....
Brutal Sports Football (World);Brutal Sports Football;atarijaguar;;1994;Teque London Ltd.;Sports;1;;;;;;;Brutal Sports Football (World);Similar to Speedball 2, Brutal Sports Football is an ultra-violent sports game. Matches last 7 minutes, and the aim is to get the ball into the goal, kept by a net-minder. The oval ball can be thrown or kicked, this resulting in frequent up-and-under type kicks. Violence is the pivotal element of gameplay: rather than rare occurrency, punching, stomping, use of weapons, and eve...
Bubsy in Fractured Furry Tales (World);Bubsy in Fractured Furry Tales;atarijaguar;;1994;Imagitec Design Inc.;Action;2;;;;;;;Bubsy in Fractured Furry Tales (World);Bubsy In: Fractured Furry Tales is the only Bubsy game to appear on the Atari Jaguar. It's a side scrolling platform game similar to the Genesis and SNES Bubsy series. Bubsy is a bobcat superhero who can defeat all enemies by jumping on top of them. In Fractured Furry Tales, he finds himself in a series of fairy tales. When all havoc breaks loose in the land of fairy tales, Mot...
Cannon Fodder (World);Cannon Fodder;atarijaguar;;1995;Sensible Software;Action, Strategy;1;;;;;;;Cannon Fodder (World);Guide a team of up to six soldiers through 72 levels of combat in this top-down action/strategy hybrid, best thought of as Lemmings crossed with Commando crossed with Dune 2. The characters are controlled indirectly using the mouse, as you activate each soldier or group of them by highlighting them, click the left button to move them to a particular spot, and the right button for them to fire guns at an enemy....
Checkered Flag (World);Checkered Flag;atarijaguar;;1994;Rebellion Developments Ltd.;Racing / Driving;1;;;;;;;Checkered Flag (World);Checkered Flag for the Jaguar is a 3D F1-style racing game. The racing game staples are here: single race, practice, and tournament. You can choose to set up a variety of options for each race, also. You can choose various weather conditions. Or, you can set up your car to change it's handling characteristics. There are 10 different tracks on which to race, each with a different theme....
Club Drive (World);Club Drive;atarijaguar;;1994;Atari Corporation;Racing / Driving;2;;;;;;;Club Drive (World);It is the future, and the most popular theme park around is Club Drive. Scientists have managed to invent indestructible cars. Patrons to Club Drive can drive these cars around imaginative environments and play outrageous driving games. Club Drive as a Jaguar game is a simple driving simulator. You are put in the drivers seat, and can race through some large environments....
Cybermorph (World) (Rev 2);Cybermorph;atarijaguar;;1993;Attention to Detail Limited;Action;1;;;;;;;Cybermorph (World) (Rev 2);Cybermorph was the first game released for Atari's Jaguar console. It's a 3D sci-fi shoot-'em-up. The story goes like this: The evil Pernitia Empire is swallowing up the galaxy's planets left and right. What's worse, the resistance forces have had their secret weapons stolen from them and put into pods spread out on many different planets....
Defender 2000 (World);Defender 2000;atarijaguar;;1996;Atari Corporation;Action;2;;;;;;;Defender 2000 (World);Defender 2000 is an update of the classic arcade game by Eugene Jarvis. This Jaguar game features a port of the original game, and two updated versions: Defender Plus and Defender 2000. Defender combines a side scrolling shooter with a search and rescue game. You control a ship that travels left and right above the planets surface....
Doom (World);Doom;atarijaguar;;1994;id Software, Inc.;Action;2;;;;;;;Doom (World);The Union Aerospace Corporation has been experimenting with teleportation technology on Mars' moons Phobos and Deimos. After early successes, something goes wrong. It seems the scientists have opened a gateway straight to Hell. Phobos base is overrun with demonic creatures, and the whole of Deimos simply vanishes. A squad of marines is sent to Phobos, but all except one are quickly slaughtered....
Double Dragon V - The Shadow Falls (World);Double Dragon V - The Shadow Falls;atarijaguar;;1995;Leland Interactive Media;Action;2;;;;;;;Double Dragon V - The Shadow Falls (World);Double Dragon returns, this time as a VS. fighter, in the same mold as Street Fighter. It does not continue the series' storyline, but is based on the Double Dragon animated series, which is loosely based on the original arcade game, Jimmy and Billy and a host of other characters fight it out in a tournament fighter. The Shadow Master, who has created a deadly virus which he pl...
Dragon - The Bruce Lee Story (World);Dragon - The Bruce Lee Story;atarijaguar;;1994;Virgin Interactive Entertainment (Europe) Ltd.;Action;2;;;;;;;Dragon - The Bruce Lee Story (World);Dragon: The Bruce Lee Story is a action/fighting game in which you play Bruce Lee, the infamous martial arts master. As you go through the different levels, the game follows the format of the 1993 Universal movie of the same name, but is not identical to it. As Bruce Lee, you can perform a wide variety of high-flying martial arts moves, roundhouse kicks, flying kicks, flying chops and throws....
Evolution - Dino Dudes (World);Evolution - Dino Dudes;atarijaguar;;1994;Imagitec;Strategy;1;;;;;;;Evolution - Dino Dudes (World);The gameplay of The Humans has similarities to Lode Runner and Lemmings. Your job in this action puzzler is to help prehistoric man to evolve by helping them discover tools, the wheel, weapons, or even fire. Each level in the game will have a given task to help in this, and you are allotted a number of characters who must accomplish the task....
Fever Pitch Soccer (World) (En,Fr,De,Es,It);Fever Pitch Soccer;atarijaguar;;1995;U.S. Gold Ltd.;Sports;2;;;;;;;Fever Pitch Soccer (World) (En,Fr,De,Es,It);In this isometric football game, 50 national teams are represented to play in two game modes: Exhibition and Tournament (a series of seven games on four continents, with a final against the World All-Stars), with the ability to set time, difficulty level, see cutscenes after goals and if players are free to kick each other around without (many) fouls....
Fight for Life (World);Fight for Life;atarijaguar;;1996;Atari Corporation;Action;2;;;;;;;Fight for Life (World);Fight for Life is a 3D fighting game that takes place in hell. The player controls one of eight deceased fighters competing to earn a chance to escape and return to the world of the living. After they defeat an opponent they not only move on to the next round, but also learn two of the opponent's moves. This is the only 3D fighting game released for the Jaguar....
Flashback - The Quest for Identity (World) (En,Fr);Flashback - The Quest for Identity;atarijaguar;;1995;Delphine Software International;Action;1;;;;;;;Flashback - The Quest for Identity (World) (En,Fr);The year is 2142. The player takes control of Conrad B. Hart, a man who has lost his memory. After barely escaping from hostile aliens, Conrad's bike crashes on an unknown planet. Conrad finds himself in the jungle, and from that moment on his quest for survival and his lost identity begins. Flashback: The Quest for Identity incorporates elements of platforming, shooting, and problem-solving....
Flip Out! (World);Flip Out!;atarijaguar;;1995;Gorilla Systems Corporation;Strategy;1;;;;;;;Flip Out! (World);FlipOut! is a puzzle game starring aliens from the planet Phrohmaj. Your objective in each puzzle is simple: you must place all the colored tiles into the correct spaces on the board. The tricky part is that there is always one more tile than there are spaces. That means you are always juggling at least one tile in the air. The game becomes more difficult as you have to juggle ...
Hover Strike (World);Hover Strike;atarijaguar;;1995;Atari Corporation;Action, Simulation;2;;;;;;;Hover Strike (World);Terrakian Pirates have taken over a colonized planet under Federation control. They've set up an atmospheric cannon, making invasion impossible. Your job, as a hovercraft pilot, is to launch a pre-emptive strike on the planet's surface. Hover Strike for the Jaguar is a mission-based tank game. In each mission, you will drop to the surface of the planet, destroy some targets, and then return to your ship in orbit....
Hyper Force (World);Hyper Force;atarijaguar;;2000;Visual Impact;Action;1;;;;;;;Hyper Force (World);HyperForce is an action sci-fi platform game with 2D graphics. You play a warrior who has been sent to destroy Trans Con, a deadly outfit that plans to attack Terran. There is plenty of fighting to do - shooting soldiers, security drones and robots. You'll also be avoiding traps, finding switches to open doors and shooting down breakable walls to find hidden areas with goodies and bonus points....
I-War (World);I-War;atarijaguar;;1995;Imagitec Design Inc.;Action;2;;;;;;;I-War (World);The giant supercomputer that controls the world's information has been infected with viruses. You must enter the virtual world known as the I-Way, and clear them out with your anti-virus tank. I-War is a 3D virtual reality tank game. In each of the 21 levels, you must find all the data pods and make your way to the exit. Enemy tanks, turrets, and bombers stand in your way, as w...
Iron Soldier (World) (v1.04);Iron Soldier;atarijaguar;;1994;Eclipse Software Design;Action, Simulation;1;;;;;;;Iron Soldier (World) (v1.04);It is the future, and the earth has been covered with wastelands and cities. The powerful, faceless Iron First Corporation has replaced the last forms of free government. Now, they are developing a new, 42-foot, armed robot known as the Iron Soldier. With the Iron Soldier, no one will be able to stop the Iron First Corporation. The only hope is the Resistance, a group that has ...
Iron Soldier 2 (World);Iron Soldier 2;atarijaguar;;1997;Eclipse Software Design;Action, Simulation;1;;;;;;;Iron Soldier 2 (World);Iron Soldier 2 puts you back in the pilot's seat of a 42 foot tall humanoid war machine. The old Iron Fist corporation is gone, and a new democratic republic has been set up. The peace is short lived, though. Iron Fist's rival, PENTA corporation, is now threatening the United Republic's stability. You are a pilot for the United Republic, and must stop PENTA's advances....
Kasumi Ninja (World);Kasumi Ninja;atarijaguar;;1994;Hand Made Software, Ltd.;Action;2;;;;;;;Kasumi Ninja (World);On the tiny island of Kasumi, there exists a portal between this world and the Netherworld. For many centuries, this portal has been kept closed by the balance between good and evil forces. Now, the dark ninja lord Gyaku has defeated the forces of good, and opened the portal to the netherworld. It is up to you, a Kasumi ninja, to stop Gyaku and restore balance to the world....
Missile Command 3D (World);Missile Command 3D;atarijaguar;;1995;Virtuality Entertainment Ltd.;Action;1;;;;;;;Missile Command 3D (World);Missile Command 3D is an update to the classic Atari arcade game. The goal in Missile Command is to defend your cities against an onslaught of missiles coming from the sky. Your arsenal consists of three anti-missile flak cannons. You have to position the anti-missile clouds in the path of the incoming missiles to stop them from impacting....
NBA Jam - Tournament Edition (World);NBA Jam - Tournament Edition;atarijaguar;;1995;Midway Games, Inc.;Action, Sports;2;;;;;;;NBA Jam - Tournament Edition;This game lets you play two-on-two arcade basketball with players from all the NBA teams. Gameplay is fast and action-packed, with few rules, no fouls, and deliberately unrealistic jamming. Players are rated on eight ability categories, from steals and blocks, to dunks and 3-pointers. Up to four human players can take part, each always controlling a single player for their team, and AI for missing players....
Pinball Fantasies (World);Pinball Fantasies;atarijaguar;;1995;Digital Illusions CE AB;Action;8;;;;;;;Pinball Fantasies (World);After the success of Pinball Dreams on several systems, a sequel featuring four new tables was created. The gameplay is much the same as the first game, with realistic physics, multi-player options and a high score table to aim for. The tables are Partyland, Speed Devils, Billion Dollar Gameshow and Stones 'n' Bones, taking in a funfair, racing cars, a tacky game-show, and a graveyard....
Pitfall - The Mayan Adventure (World);Pitfall - The Mayan Adventure;atarijaguar;;1995;Activision, Inc.;Action;1;;;;;;;Pitfall - The Mayan Adventure (World);Pitfall: The Mayan Adventure is a side-scrolling action game in which you play adventurer Pitfall Harry Jr in search of his father Pitfall Harry. You battle your way through the Mayan jungles, waterfalls, deserted mines and can bungee jump and boomerang your way to safety. There are 13 levels and the action is fast and gripping. You will need to be attentive—and quick. Or prepare to die.
Power Drive Rally (World);Power Drive Rally;atarijaguar;;1995;Rage Software Ltd.;Racing / Driving;8;;;;;;;Power Drive Rally (World);Power Drive Rally is a view into the world of rally racing. This game is an overhead-view racer featuring real cars and tracks based on locations around the world. The game's design is similar to the earlier Power Drive for 16-bit systems, however the circuit designs are different. The main game mode portrays a season of championship racing....
Protector - Special Edition (World);Protector - Special Edition;atarijaguar;;2002;Songbird Productions;Action, Shooter, Scrolling;2;;;;;;;Protector - Special Edition (World);Protector SE is an update of Songbird's earlier Protector, which shares many similarities to Defender. The Special Edition version includes many improvements over the original game, including new waves, new enemies, new landscapes, gameplay enhancements, and more. Please visit the Protector SE Page at Songbird Productions for more information.
Raiden (World);Raiden;atarijaguar;;1994;Seibu Kaihatsu Inc.;Action;2;;;;;;;Raiden (World);In the year 2090, Earth is invaded by extra-terrestrials. The World Alliance of Nations has developed a supersonic attack fighter, Raiden, to defend the Earth. A pilot must take control of the experimental fighter to destroy the alien warships that just happen to look like odd variations of typical military tanks and planes with gadgets attached to them....
Rayman (World);Rayman;atarijaguar;;1995;Ubi Soft Entertainment Software;Action;1;;;;;;;Rayman (World);When a villain known only as Mr. Dark appears, trouble brews in Rayman's world. Mr. Dark captures the Toons - source of light and Rayman's friends. With no more light, evil creatures begin to roam, making the world unsafe for everyone. Its up to you, as Rayman, to free your friends and put an end to Mr. Dark's dastardly schemes! Rayman is a side-scrolling platformer starring th...
Ruiner Pinball (World);Ruiner Pinball;atarijaguar;;1995;High Voltage Software, Inc.;Action;4;;;;;;;Ruiner Pinball (World);Ruiner Pinball is a collection of two fantasy pinball tables: Ruiner and Tower. Ruiner is a two screen wide table that features flashy scaling and rotation effects. There are lots of ramps and animated moving targets to score on. Ruiner has a cold war nuclear holocaust theme. Tower is an extra-tall table that features a medieval horror motif....
Sensible Soccer - International Edition (World);Sensible Soccer - International Edition;atarijaguar;;1995;Sensible Software;Action, Sports;;;;;;;;Sensible Soccer - International Edition (World);Released alongside the 1994 World Cup, this was the first version of Sensible Soccer to feature teams from outside Europe. The World Cup tournament is featured in full, and you can adjust which 24 teams this features, a particularly crucial feature for English and French fans, as their nations failed to qualify. For the first time in the series an on-screen referee is featured....
Skyhammer (World);Skyhammer;atarijaguar;;2000;Rebellion Developments Ltd.;Action;1;;;;;;;Skyhammer (World);In a futuristic city, you are a mercenary pilot flying a helicopter-like craft in cyberspace. Hired by the large corporation Cytox, you are to defend its corporate holdings from those who seek to destroy all it has accomplished. The numerous missions involve flying to several large cities and hunting down the renegades who threaten them....
Soccer Kid (World);Soccer Kid;atarijaguar;;1996;ReadySoft Incorporated;Action;1;;;;;;;Soccer Kid (World);Aliens attempting to steal the World Cup have crashed as they tried to flee, and the Cup has been broken, its pieces scattered around the globe. As Soccer Kid, you must retrieve it. During your journey you will visit Britain, Italy, Russia, Japan, and finally the States. Soccer Kid is a platform game with some unique elements. As the name implies, you have to kill your enemies with your ball....
Space War 2000 (World);Space War 2000;atarijaguar;;2000;Atari;Simulation, Space, Combat;1;;;;;;;Space War 2000;As a space knight, you will vie for glory, honor, fame and fortune in this one- or two-player first-person perspective 3D jousting adventure. Procure multiple weapons anhd cool defensive items in your quest to rank with other valiant knights on the High Score Table.
Super Burnout (World);Super Burnout;atarijaguar;;1995;Shen Technologies SARL;Racing / Driving;2;;;;;;;Super Burnout (World);Super Burnout is an arcade-style superbike racing game inspired by Super Hang-On. Players control an ultra-fast motorcycle through races that take place on famous tracks throughout the world. There are six bikes to choose from with races on a total of eight different tracks. The usual racing game modes are present. There is a single race mode, a practice mode, and a championship mode....
SuperCross 3D (World);SuperCross 3D;atarijaguar;;1995;Tiertex Design Studios;Racing / Driving;1;;;;;;;SuperCross 3D (World);Supercross 3D brings the excitement of arena supercross racing to the Jaguar. Not only do you get to race ahead of your competitors, you can catch big air on the huge jumps and perform a few tricks. There are three game modes: Practice, Single Race, and Tournament. In practice mode, you can race around any track for as long as you like....
Syndicate (World);Syndicate;atarijaguar;;1995;Bullfrog Productions, Ltd.;Action, Strategy;1;;;;;;;Syndicate (World);In the future, the world is controlled by a handful of global corporations (syndicates). You are the Marketing director (hit man) for one of these companies. It is your job to take control away from the competitors. The job is not one of diplomacy, but one of brute force and physical control. Advance your way to the top of the corporation by successfully completing your mission...
Tempest 2000 (World);Tempest 2000;atarijaguar;;1994;Llamasoft Ltd.;Action;2;;;;;;;Tempest 2000 (World);Tempest 2000 is a remake/upgrade of the popular Atari vector graphics-based shooter. Blast your way through over 100+ levels, shooting the creatures that come out from the other side of the web to drag you in. Collect power-ups (jump, AI robots and more) to trippy graphics and colorful explosions as a thumping techno-house soundtrack blasts in the background....
Theme Park (World);Theme Park;atarijaguar;;1995;Bullfrog Productions, Ltd.;Strategy;1;;;;;;;Theme Park (World);Dominating the exciting world of Theme Park ownership is your goal in this strategy game from Bullfrog. The first task is to set up your rides within the available land, structuring convenient paths and queues and ideally leaving some space for bigger rides once they become available, and include some lakes and trees to increase the park's allure....
Total Carnage (World);Total Carnage;atarijaguar;;2005;Midway;Action;2;;;;;;;Total Carnage (World);The war of 1999 left the country of Kookistan in shambles. Naturally, a dictator named General Akhboob took control of the beleagured nation and began creating an army of radioactive mutants. With a virtually impenetrable stronghold, a bunch of hostages, and a legion of mutants under his command, the evil despot will stop at nothing but world domination....
Towers II (World);Towers II;atarijaguar;;1996;JV Games Inc.;Adventure, First-Person Adventure;1;;;;;;;Towers II (World);Become one of four different characters as you are immersed within the strange happenings in the mystical land of Lamini. You must uncover the secrets as you explore Daggan's tower. Many before you have tried, but none have returned. First person perspective, full screen smooth scrolling, talk to others, refer to maps, collect 100's of items, encounter 100's of creatures, exper...
Trevor McFur in the Crescent Galaxy (World);Trevor McFur in the Crescent Galaxy;atarijaguar;;1993;Atari Corporation;Action;1;;;;;;;Trevor McFur in the Crescent Galaxy (World);The Crescent Galaxy has been attacked by an entity known as Odd-it. This creatures goal is to make everything odd, like it. You play Trevor McFur, a corporal in the Crescent Galaxy's chapter of the Interplanetary Defense squad and are sent in along with your feline partner Cutter to defeat Odd-it. The game is a side scrolling shooter featuring a wide variety of worlds and enemies to conquer....
Troy Aikman NFL Football (World);Troy Aikman NFL Football;atarijaguar;;1995;Telegames;Sports;2;;;;;;;Troy Aikman NFL Football (World);You and a friend can become star NFL players or choose to coach a team in this realistic rendition of the game of American football, endorsed by former Dallas Cowboys quarterback and Super Bowl champ, Troy Aikman. Choose to play alone against the system, or play against each other. Pick from 3 play modes: Pre-season, Season, or Custom Generated (editable) season....
Ultra Vortek (World);Ultra Vortek;atarijaguar;;1995;Beyond Games;Action;2;;;;;;;Ultra Vortek (World);Civilization has fallen into a deep decline. Gangs and warlords are gaining power and influence all over the world. Then out of nowhere, a powerful being known as the Guardian appears with a challenge. Unless a warrior meets his challenge, he will destroy the Earth. So, 7 warriors from around the world fight to re-open the Ultra Vortek and restore the Earth....
Val d'Isere Skiing and Snowboarding (World);Val d'Isere Skiing and Snowboarding;atarijaguar;;1994;Virtual Studio;Sports;2;;;;;;;Val d'Isere Skiing and Snowboarding (World);This is a skiing and snowboarding game that takes place entirely at the French Val d'Isère resort. Both sports are represented equally. There are three events: downhill, slalom, and giant slalom. There are also three game modes, free ride, training, and competition. Competition mode provides a series of timed events in which to compete leading up to a final timed event....
White Men Can't Jump (World);White Men Can't Jump;atarijaguar;;1995;High Voltage Software, Inc., Trimark Interactive;Action, Sports;4;;;;;;;White Men Can't Jump (World);This is the game of basketball the way many people learn to play it - in the city streets - with loose rules and in various suburban locales. Inspired by the 1992 film about high stakes street basketball gambling, in this game you can wager how much you want on each game. The action is seen from the half court line, with a screen view that pans and zooms to follow the action....
Wolfenstein 3D (World);Wolfenstein 3D;atarijaguar;;1994;id Software, Inc.;Action;1;;;;;;;Wolfenstein 3D (World);This adaptation of the first-person shooter Wolfenstein 3D is not a straight port, but a remix with substantial changes as well as new additions. While the basic gameplay of exploring levels, shooting enemies, collecting treasures, keys and power-ups remain the same, only half of the original game's 60 levels have been retained. Each of those 30 levels (grouped into six mission...
Worms (World);Worms;atarijaguar;;1998;Team17 Software Limited;Strategy;4;;;;;;;Worms (World);Worms is a turn-based strategy game. It features up to 4 teams of 4 worms, aiming to destroy the others on a generated terrain. Each worm has 100 hit points, and dies when his hit points fall to 0. Upon death, a worm explodes, causing damage to everyone around. Gameplay is turn-based. Each turn, the player can control one specific worm from his team....
Zero 5 (World);Zero 5;atarijaguar;;1997;Caspian Software Ltd.;Action;1;;;;;;;Zero 5 (World);Zero 5 is a space shooter which places you in control of a small and maneuverable fighter craft, or a powerful warship, depending upon which level you play. Taking on the role of a pilot, you must defend the earth from alien attack with dozens of missions needed to succeed. Your tour of duty includes travelling through deep space to meet enemy convoys head on and shooting acros...
Zool 2 (World);Zool 2;atarijaguar;;1994;Gremlin Graphics Software Ltd.;Action;2;;;;;;;Zool 2 (World);The sequel to Zool sees him take on the bad guys Mental Block and Krool across 15 levels. Zool 2 is a platform game where you control the titular "Ninja of the Nth Dimension" (or his girlfriend, Zooz, who can complete each level in a slightly different way) as he rampages through a variety of levels, collecting countless tasty treats, shooting any enemies that he encounters and...
Zoop! (World);Zoop!;atarijaguar;;1996;Hookstone Ltd.;Action, Strategy;1;;;;;;;Zoop! (World);Zoop is a fast-paced puzzle game in which the player eliminates colored shapes that are approaching his alter ego, another colored shape, before they reach the top, somewhat similarly to Tetris. In order to eliminate the other shapes, you must point your piece at it and 'fire'. If the shape is the same color as your piece, the shape is eliminated, as well as all of the shapes o...
